TITLE     = ""
VARIABLES = "V1"
"V3"
"V5"
ZONE T="ZONE 001"
 STRANDID=0, SOLUTIONTIME=0
 I=2667, J=1, K=1, ZONETYPE=Ordered
 DATAPACKING=POINT
 DT=(SINGLE SINGLE SINGLE )
 3.000000E-003 3.361087E-003 4.596129E-007
 6.000000E-003 7.265333E-003 2.078224E-006
 9.000000E-003 7.993286E-003 5.166183E-006
 1.200000E-002 8.728410E-003 9.741595E-006
 1.500000E-002 9.494817E-003 1.575354E-005
 1.800000E-002 1.030489E-002 2.313367E-005
 2.100000E-002 1.116676E-002 3.182019E-005
 2.400000E-002 1.208660E-002 4.176742E-005
 2.700000E-002 1.306971E-002 5.294842E-005
 3.000000E-002 1.412107E-002 6.535462E-005
 3.300000E-002 1.524561E-002 7.899440E-005
 3.600000E-002 1.644834E-002 9.389139E-005
 3.900000E-002 1.773445E-002 1.100829E-004
 4.200000E-002 1.910934E-002 1.276184E-004
 4.500000E-002 2.057864E-002 1.465586E-004
 4.800000E-002 2.214827E-002 1.669744E-004
 5.100000E-002 2.382442E-002 1.889466E-004
 5.400000E-002 2.561357E-002 2.125650E-004
 5.700000E-002 2.752255E-002 2.379281E-004
 6.000000E-002 2.955846E-002 2.651435E-004
 6.300000E-002 3.172880E-002 2.943271E-004
 6.600000E-002 3.404138E-002 3.256035E-004
 6.900000E-002 3.650439E-002 3.591062E-004
 7.200000E-002 3.912639E-002 3.949774E-004
 7.500000E-002 4.191633E-002 4.333684E-004
 7.800000E-002 4.488358E-002 4.744399E-004
 8.100000E-002 4.803788E-002 5.183621E-004
 8.400000E-002 5.138943E-002 5.653151E-004
 8.700000E-002 5.494884E-002 6.154894E-004
 9.000000E-002 5.872719E-002 6.690859E-004
 9.300000E-002 6.273599E-002 7.263166E-004
 9.600000E-002 6.698723E-002 7.874051E-004
 9.900000E-002 7.149336E-002 8.525864E-004
 1.020000E-001 7.626733E-002 9.221080E-004
 1.050000E-001 8.132258E-002 9.962302E-004
 1.080000E-001 8.667304E-002 1.075226E-003
 1.110000E-001 9.233317E-002 1.159383E-003
 1.140000E-001 9.831791E-002 1.249002E-003
 1.170000E-001 1.046428E-001 1.344398E-003
 1.200000E-001 1.113237E-001 1.445904E-003
 1.230000E-001 1.183774E-001 1.553863E-003
 1.260000E-001 1.258207E-001 1.668641E-003
 1.290000E-001 1.336714E-001 1.790614E-003
 1.320000E-001 1.419476E-001 1.920181E-003
 1.350000E-001 1.506679E-001 2.057754E-003
 1.380000E-001 1.598517E-001 2.203765E-003
 1.410000E-001 1.695186E-001 2.358666E-003
 1.440000E-001 1.796890E-001 2.522926E-003
 1.470000E-001 1.903836E-001 2.697034E-003
 1.500000E-001 2.016239E-001 2.881500E-003
 1.530000E-001 2.134317E-001 3.076855E-003
 1.560000E-001 2.258292E-001 3.283649E-003
 1.590000E-001 2.388395E-001 3.502455E-003
 1.620000E-001 2.524857E-001 3.733868E-003
 1.650000E-001 2.667917E-001 3.978504E-003
 1.680000E-001 2.817816E-001 4.237005E-003
 1.710000E-001 2.974803E-001 4.510033E-003
 1.740000E-001 3.139126E-001 4.798275E-003
 1.770000E-001 3.311041E-001 5.102442E-003
 1.800000E-001 3.490806E-001 5.423268E-003
 1.830000E-001 3.678681E-001 5.761513E-003
 1.860000E-001 3.874931E-001 6.117960E-003
 1.890000E-001 4.079823E-001 6.493420E-003
 1.920000E-001 4.293627E-001 6.888725E-003
 1.950000E-001 4.516614E-001 7.304736E-003
 1.980000E-001 4.749056E-001 7.742337E-003
 2.010000E-001 4.991229E-001 8.202438E-003
 2.040000E-001 5.243406E-001 8.685977E-003
 2.070000E-001 5.505863E-001 9.193913E-003
 2.100000E-001 5.778875E-001 9.727235E-003
 2.130000E-001 6.062717E-001 1.028695E-002
 2.160000E-001 6.357661E-001 1.087411E-002
 2.190000E-001 6.663982E-001 1.148975E-002
 2.220000E-001 6.981945E-001 1.213499E-002
 2.250000E-001 7.311819E-001 1.281091E-002
 2.280000E-001 7.653867E-001 1.351866E-002
 2.310000E-001 8.008348E-001 1.425940E-002
 2.340000E-001 8.375515E-001 1.503430E-002
 2.370000E-001 8.755621E-001 1.584457E-002
 2.400000E-001 9.145170E-001 1.669143E-002
 2.430000E-001 9.554547E-001 1.757615E-002
 2.460000E-001 9.975019E-001 1.850000E-002
 2.490000E-001 1.040922E+000 1.946425E-002
 2.520000E-001 1.085749E+000 2.047021E-002
 2.550000E-001 1.131998E+000 2.151919E-002
 2.580000E-001 1.179694E+000 2.261252E-002
 2.610000E-001 1.228855E+000 2.375156E-002
 2.640000E-001 1.279498E+000 2.493768E-002
 2.670000E-001 1.331639E+000 2.617228E-002
 2.700000E-001 1.385293E+000 2.745674E-002
 2.730000E-001 1.440472E+000 2.879248E-002
 2.760000E-001 1.497188E+000 3.018092E-002
 2.790000E-001 1.555453E+000 3.162349E-002
 2.820000E-001 1.615273E+000 3.312162E-002
 2.850000E-001 1.676657E+000 3.467678E-002
 2.880000E-001 1.739609E+000 3.629039E-002
 2.910000E-001 1.804134E+000 3.796393E-002
 2.940000E-001 1.870232E+000 3.969886E-002
 2.970000E-001 1.937903E+000 4.149665E-002
 3.000000E-001 2.007145E+000 4.335876E-002
 3.030000E-001 2.077955E+000 4.528666E-002
 3.060000E-001 2.150319E+000 4.728183E-002
 3.090000E-001 2.224223E+000 4.934569E-002
 3.120000E-001 2.299685E+000 5.147973E-002
 3.150000E-001 2.376671E+000 5.368537E-002
 3.180000E-001 2.454931E+000 5.596379E-002
 3.210000E-001 2.535087E+000 5.831879E-002
 3.240000E-001 2.616665E+000 6.075028E-002
 3.270000E-001 2.699669E+000 6.325972E-002
 3.300000E-001 2.784049E+000 6.584858E-002
 3.330000E-001 2.869808E+000 6.851833E-002
 3.360000E-001 2.956888E+000 7.127046E-002
 3.390000E-001 3.045245E+000 7.410641E-002
 3.420000E-001 3.134833E+000 7.702772E-002
 3.450000E-001 3.225600E+000 8.003578E-002
 3.480000E-001 3.317492E+000 8.313199E-002
 3.510000E-001 3.410454E+000 8.631760E-002
 3.540000E-001 3.506694E+000 8.959390E-002
 3.570000E-001 3.598462E+000 9.296185E-002
 3.600000E-001 3.693664E+000 9.642223E-002
 3.630000E-001 3.789148E+000 9.996988E-002
 3.660000E-001 3.880752E+000 1.035642E-001
 3.690000E-001 3.974037E+000 1.072127E-001
 3.720000E-001 4.064971E+000 1.109213E-001
 3.750000E-001 4.160750E+000 1.146955E-001
 3.780000E-001 4.256122E+000 1.185407E-001
 3.810000E-001 4.351736E+000 1.224617E-001
 3.840000E-001 4.447537E+000 1.264629E-001
 3.870000E-001 4.543437E+000 1.305479E-001
 3.900000E-001 4.639210E+000 1.347203E-001
 3.930000E-001 4.735553E+000 1.389826E-001
 3.960000E-001 4.832014E+000 1.433412E-001
 3.990000E-001 4.928619E+000 1.477971E-001
 4.020000E-001 5.025415E+000 1.523519E-001
 4.050000E-001 5.122409E+000 1.570075E-001
 4.080000E-001 5.219641E+000 1.617663E-001
 4.110000E-001 5.318105E+000 1.666306E-001
 4.140000E-001 5.412369E+000 1.716026E-001
 4.170000E-001 5.563107E+000 1.768299E-001
 4.200000E-001 5.661335E+000 1.818059E-001
 4.230000E-001 5.762771E+000 1.868773E-001
 4.260000E-001 5.863744E+000 1.920491E-001
 4.290000E-001 5.964534E+000 1.973259E-001
 4.320000E-001 6.063983E+000 2.027099E-001
 4.350000E-001 6.165030E+000 2.082157E-001
 4.380000E-001 6.264349E+000 2.138410E-001
 4.410000E-001 6.361947E+000 2.195841E-001
 4.440000E-001 6.457530E+000 2.254374E-001
 4.470000E-001 6.549553E+000 2.313844E-001
 4.500000E-001 6.614581E+000 2.372830E-001
 4.530000E-001 6.668682E+000 2.430784E-001
 4.560000E-001 6.732435E+000 2.488181E-001
 4.590000E-001 6.795403E+000 2.545501E-001
 4.620000E-001 6.856855E+000 2.603129E-001
 4.650000E-001 6.921323E+000 2.661530E-001
 4.680000E-001 6.985620E+000 2.720854E-001
 4.710000E-001 7.051292E+000 2.781286E-001
 4.740000E-001 7.116527E+000 2.842977E-001
 4.770000E-001 7.263369E+000 2.908048E-001
 4.800000E-001 7.332191E+000 2.967398E-001
 4.830000E-001 7.408794E+000 3.028020E-001
 4.860000E-001 7.483428E+000 3.090058E-001
 4.890000E-001 7.559438E+000 3.153816E-001
 4.920000E-001 7.631382E+000 3.219028E-001
 4.950000E-001 7.700614E+000 3.285182E-001
 4.980000E-001 7.714677E+000 3.350001E-001
 5.010000E-001 7.705761E+000 3.412445E-001
 5.040000E-001 7.716702E+000 3.473355E-001
 5.070000E-001 7.729263E+000 3.533796E-001
 5.100000E-001 7.746883E+000 3.594689E-001
 5.130000E-001 7.770260E+000 3.656568E-001
 5.160000E-001 7.896413E+000 3.726107E-001
 5.190000E-001 7.926561E+000 3.783679E-001
 5.220000E-001 7.969337E+000 3.842814E-001
 5.250000E-001 8.015128E+000 3.903849E-001
 5.280000E-001 8.062987E+000 3.967170E-001
 5.310000E-001 8.112601E+000 4.031906E-001
 5.340000E-001 8.081461E+000 4.094786E-001
 5.370000E-001 8.013787E+000 4.154659E-001
 5.400000E-001 7.975591E+000 4.212247E-001
 5.430000E-001 7.947781E+000 4.269235E-001
 5.460000E-001 7.931232E+000 4.326868E-001
 5.490000E-001 8.039557E+000 4.391403E-001
 5.520000E-001 8.038198E+000 4.442658E-001
 5.550000E-001 8.056613E+000 4.496577E-001
 5.580000E-001 8.080591E+000 4.553613E-001
 5.610000E-001 8.113766E+000 4.612627E-001
 5.640000E-001 8.044985E+000 4.669442E-001
 5.670000E-001 7.927594E+000 4.723280E-001
 5.700000E-001 7.851784E+000 4.774271E-001
 5.730000E-001 7.793716E+000 4.824618E-001
 5.760000E-001 7.752527E+000 4.875973E-001
 5.790000E-001 7.850145E+000 4.926910E-001
 5.820000E-001 7.844999E+000 4.972213E-001
 5.850000E-001 7.850240E+000 5.021300E-001
 5.880000E-001 7.863813E+000 5.072341E-001
 5.910000E-001 7.731044E+000 5.120527E-001
 5.940000E-001 7.593484E+000 5.165998E-001
 5.970000E-001 7.492748E+000 5.208726E-001
 6.000000E-001 7.427356E+000 5.251380E-001
 6.030000E-001 7.498409E+000 5.295829E-001
 6.060000E-001 7.473238E+000 5.330778E-001
 6.090000E-001 7.464023E+000 5.370399E-001
 6.120000E-001 7.469538E+000 5.412364E-001
 6.150000E-001 7.306199E+000 5.451590E-001
 6.180000E-001 7.143011E+000 5.488425E-001
 6.210000E-001 7.026186E+000 5.522488E-001
 6.240000E-001 6.944748E+000 5.557417E-001
 6.270000E-001 7.024964E+000 5.587460E-001
 6.300000E-001 6.997486E+000 5.614776E-001
 6.330000E-001 6.986984E+000 5.646979E-001
 6.360000E-001 6.921389E+000 5.677227E-001
 6.390000E-001 6.692408E+000 5.707491E-001
 6.420000E-001 6.547922E+000 5.734201E-001
 6.450000E-001 6.454035E+000 5.760588E-001
 6.480000E-001 6.520335E+000 5.781664E-001
 6.510000E-001 6.485363E+000 5.799013E-001
 6.540000E-001 6.470393E+000 5.821791E-001
 6.570000E-001 6.394888E+000 5.842669E-001
 6.600000E-001 6.152646E+000 5.865354E-001
 6.630000E-001 6.003861E+000 5.884359E-001
 6.660000E-001 5.905522E+000 5.903349E-001
 6.690000E-001 5.985503E+000 5.911064E-001
 6.720000E-001 5.954848E+000 5.921531E-001
 6.750000E-001 5.943678E+000 5.936127E-001
 6.780000E-001 5.770993E+000 5.949121E-001
 6.810000E-001 5.558783E+000 5.963144E-001
 6.840000E-001 5.430541E+000 5.974917E-001
 6.870000E-001 5.505357E+000 5.980349E-001
 6.900000E-001 5.452458E+000 5.979541E-001
 6.930000E-001 5.433842E+000 5.985605E-001
 6.960000E-001 5.376536E+000 5.990146E-001
 6.990000E-001 5.114975E+000 5.999888E-001
 7.020000E-001 4.962545E+000 6.005970E-001
 7.050000E-001 5.034820E+000 6.007448E-001
 7.080000E-001 4.966432E+000 5.997522E-001
 7.110000E-001 4.946678E+000 5.995706E-001
 7.140000E-001 4.943347E+000 5.993669E-001
 7.170000E-001 4.674563E+000 5.997673E-001
 7.200000E-001 4.510208E+000 5.998876E-001
 7.230000E-001 4.417785E+000 5.999368E-001
 7.260000E-001 4.511484E+000 5.977516E-001
 7.290000E-001 4.496523E+000 5.969121E-001
 7.320000E-001 4.497709E+000 5.961698E-001
 7.350000E-001 4.244278E+000 5.959840E-001
 7.380000E-001 4.082508E+000 5.957044E-001
 7.410000E-001 3.995393E+000 5.953301E-001
 7.440000E-001 4.093740E+000 5.923239E-001
 7.470000E-001 4.084574E+000 5.910194E-001
 7.500000E-001 4.090504E+000 5.897441E-001
 7.530000E-001 3.835031E+000 5.892931E-001
 7.560000E-001 3.686039E+000 5.886611E-001
 7.590000E-001 3.772710E+000 5.866292E-001
 7.620000E-001 3.721054E+000 5.841241E-001
 7.650000E-001 3.716238E+000 5.824930E-001
 7.680000E-001 3.704677E+000 5.807529E-001
 7.710000E-001 3.457986E+000 5.801799E-001
 7.740000E-001 3.329405E+000 5.792893E-001
 7.770000E-001 3.424667E+000 5.762980E-001
 7.800000E-001 3.393899E+000 5.736335E-001
 7.830000E-001 3.398903E+000 5.717914E-001
 7.860000E-001 3.339194E+000 5.698659E-001
 7.890000E-001 3.120955E+000 5.690717E-001
 7.920000E-001 3.022251E+000 5.679855E-001
 7.950000E-001 3.129007E+000 5.639439E-001
 7.980000E-001 3.111092E+000 5.613134E-001
 8.010000E-001 3.129407E+000 5.593128E-001
 8.040000E-001 3.002753E+000 5.575296E-001
 8.070000E-001 2.834317E+000 5.565774E-001
 8.100000E-001 2.770675E+000 5.554311E-001
 8.130000E-001 2.868164E+000 5.503284E-001
 8.160000E-001 2.875328E+000 5.478404E-001
 8.190000E-001 2.910998E+000 5.455511E-001
 8.220000E-001 2.707743E+000 5.443228E-001
 8.250000E-001 2.591180E+000 5.431810E-001
 8.280000E-001 2.693381E+000 5.391339E-001
 8.310000E-001 2.666121E+000 5.358920E-001
 8.340000E-001 2.687042E+000 5.335524E-001
 8.370000E-001 2.667917E+000 5.311967E-001
 8.400000E-001 2.472819E+000 5.302989E-001
 8.430000E-001 2.394330E+000 5.291126E-001
 8.460000E-001 2.508651E+000 5.238737E-001
 8.490000E-001 2.506004E+000 5.209569E-001
 8.520000E-001 2.542629E+000 5.186972E-001
 8.550000E-001 2.431744E+000 5.169258E-001
 8.580000E-001 2.290480E+000 5.159683E-001
 8.610000E-001 2.246479E+000 5.147657E-001
 8.640000E-001 2.358005E+000 5.084717E-001
 8.670000E-001 2.383142E+000 5.059306E-001
 8.700000E-001 2.429083E+000 5.035380E-001
 8.730000E-001 2.232290E+000 5.026960E-001
 8.760000E-001 2.143988E+000 5.016269E-001
 8.790000E-001 2.260436E+000 4.963610E-001
 8.820000E-001 2.258365E+000 4.932425E-001
 8.850000E-001 2.294654E+000 4.910175E-001
 8.880000E-001 2.245132E+000 4.890742E-001
 8.910000E-001 2.090004E+000 4.883191E-001
 8.940000E-001 2.041898E+000 4.872524E-001
 8.970000E-001 2.165177E+000 4.808990E-001
 9.000000E-001 2.184466E+000 4.783027E-001
 9.030000E-001 2.239694E+000 4.762188E-001
 9.060000E-001 2.080633E+000 4.751768E-001
 9.090000E-001 1.987322E+000 4.743376E-001
 9.120000E-001 2.104724E+000 4.692107E-001
 9.150000E-001 2.097040E+000 4.660759E-001
 9.180000E-001 2.133578E+000 4.639356E-001
 9.210000E-001 2.130602E+000 4.620119E-001
 9.240000E-001 1.968997E+000 4.615242E-001
 9.270000E-001 1.917534E+000 4.606775E-001
 9.300000E-001 2.041849E+000 4.544123E-001
 9.330000E-001 2.057993E+000 4.518514E-001
 9.360000E-001 2.117513E+000 4.500092E-001
 9.390000E-001 1.989271E+000 4.489014E-001
 9.420000E-001 1.893163E+000 4.483511E-001
 9.450000E-001 1.874170E+000 4.476010E-001
 9.480000E-001 1.997387E+000 4.403892E-001
 9.510000E-001 2.032488E+000 4.384049E-001
 9.540000E-001 2.062165E+000 4.366522E-001
 9.570000E-001 1.898870E+000 4.363803E-001
 9.600000E-001 1.842233E+000 4.357685E-001
 9.630000E-001 1.964899E+000 4.296727E-001
 9.660000E-001 1.979623E+000 4.271841E-001
 9.690000E-001 2.024559E+000 4.255681E-001
 9.720000E-001 1.953470E+000 4.244818E-001
 9.750000E-001 1.840220E+000 4.241873E-001
 9.780000E-001 1.821079E+000 4.236508E-001
 9.810000E-001 1.935214E+000 4.165954E-001
 9.840000E-001 1.969497E+000 4.147392E-001
 9.870000E-001 2.022899E+000 4.132007E-001
 9.900000E-001 1.861369E+000 4.130863E-001
 9.930000E-001 1.799019E+000 4.127166E-001
 9.960000E-001 1.919412E+000 4.068564E-001
 9.990000E-001 1.929022E+000 4.044995E-001
 1.002000E+000 1.970798E+000 4.031323E-001
 1.005000E+000 1.932033E+000 4.020919E-001
 1.008000E+000 1.806977E+000 4.020186E-001
 1.011000E+000 1.781067E+000 4.016808E-001
 1.014000E+000 1.903258E+000 3.948469E-001
 1.017000E+000 1.929800E+000 3.930918E-001
 1.020000E+000 1.986206E+000 3.918751E-001
 1.023000E+000 1.844810E+000 3.916845E-001
 1.026000E+000 1.774858E+000 3.915470E-001
 1.029000E+000 1.892649E+000 3.859849E-001
 1.032000E+000 1.896034E+000 3.837203E-001
 1.035000E+000 1.935501E+000 3.825197E-001
 1.038000E+000 1.925844E+000 3.815731E-001
 1.041000E+000 1.792300E+000 3.817159E-001
 1.044000E+000 1.758424E+000 3.815606E-001
 1.047000E+000 1.878530E+000 3.750171E-001
 1.050000E+000 1.900339E+000 3.734001E-001
 1.053000E+000 1.960229E+000 3.724172E-001
 1.056000E+000 1.837677E+000 3.721740E-001
 1.059000E+000 1.760082E+000 3.722330E-001
 1.062000E+000 1.751958E+000 3.721615E-001
 1.065000E+000 1.871848E+000 3.647964E-001
 1.068000E+000 1.909106E+000 3.637143E-001
 1.071000E+000 1.923987E+000 3.628670E-001
 1.074000E+000 1.785008E+000 3.631808E-001
 1.077000E+000 1.743433E+000 3.631835E-001
 1.080000E+000 1.860429E+000 3.569112E-001
 1.083000E+000 1.878094E+000 3.553426E-001
 1.086000E+000 1.927082E+000 3.545602E-001
 1.089000E+000 1.844433E+000 3.542984E-001
 1.092000E+000 1.751697E+000 3.545258E-001
 1.095000E+000 1.740846E+000 3.545783E-001
 1.098000E+000 1.851774E+000 3.474788E-001
 1.101000E+000 1.887389E+000 3.464817E-001
 1.104000E+000 1.925505E+000 3.457453E-001
 1.107000E+000 1.779660E+000 3.461938E-001
 1.110000E+000 1.731171E+000 3.463328E-001
 1.113000E+000 1.844409E+000 3.403566E-001
 1.116000E+000 1.858222E+000 3.388309E-001
 1.119000E+000 1.904061E+000 3.381937E-001
 1.122000E+000 1.847902E+000 3.379269E-001
 1.125000E+000 1.744646E+000 3.382914E-001
 1.128000E+000 1.730645E+000 3.384711E-001
 1.131000E+000 1.832455E+000 3.316984E-001
 1.134000E+000 1.867605E+000 3.307256E-001
 1.137000E+000 1.922127E+000 3.301293E-001
 1.140000E+000 1.776740E+000 3.305917E-001
 1.143000E+000 1.720629E+000 3.308409E-001
 1.146000E+000 1.830995E+000 3.251783E-001
 1.149000E+000 1.839476E+000 3.236660E-001
 1.152000E+000 1.882660E+000 3.231264E-001
 1.155000E+000 1.851523E+000 3.228691E-001
 1.158000E+000 1.735769E+000 3.233399E-001
 1.161000E+000 1.712812E+000 3.236023E-001
 1.164000E+000 1.822577E+000 3.171269E-001
 1.167000E+000 1.849700E+000 3.161717E-001
 1.170000E+000 1.906172E+000 3.157765E-001
 1.173000E+000 1.776792E+000 3.161159E-001
 1.176000E+000 1.712210E+000 3.164746E-001
 1.179000E+000 1.818924E+000 3.111579E-001
 1.182000E+000 1.821572E+000 3.096482E-001
 1.185000E+000 1.862389E+000 3.091753E-001
 1.188000E+000 1.856434E+000 3.089497E-001
 1.191000E+000 1.732575E+000 3.095213E-001
 1.194000E+000 1.699872E+000 3.098515E-001
 1.197000E+000 1.808558E+000 3.036751E-001
 1.200000E+000 1.831036E+000 3.027199E-001
 1.203000E+000 1.889555E+000 3.024764E-001
 1.206000E+000 1.776195E+000 3.027266E-001
 1.209000E+000 1.703377E+000 3.031996E-001
 1.212000E+000 1.694091E+000 3.036084E-001
 1.215000E+000 1.803618E+000 2.967365E-001
 1.218000E+000 1.842194E+000 2.962901E-001
 1.221000E+000 1.858486E+000 2.960994E-001
 1.224000E+000 1.728546E+000 2.967399E-001
 1.227000E+000 1.687151E+000 2.971234E-001
 1.230000E+000 1.793767E+000 2.912644E-001
 1.233000E+000 1.812185E+000 2.902801E-001
 1.236000E+000 1.860380E+000 2.901407E-001
 1.239000E+000 1.784648E+000 2.903251E-001
 1.242000E+000 1.696632E+000 2.908711E-001
 1.245000E+000 1.684237E+000 2.913120E-001
 1.248000E+000 1.785770E+000 2.847461E-001
 1.251000E+000 1.822375E+000 2.843067E-001
 1.254000E+000 1.860646E+000 2.841719E-001
 1.257000E+000 1.723731E+000 2.848649E-001
 1.260000E+000 1.675246E+000 2.852984E-001
 1.263000E+000 1.779298E+000 2.797637E-001
 1.266000E+000 1.793542E+000 2.787526E-001
 1.269000E+000 1.838396E+000 2.786798E-001
 1.272000E+000 1.787544E+000 2.788248E-001
 1.275000E+000 1.689286E+000 2.794299E-001
 1.278000E+000 1.674213E+000 2.798946E-001
 1.281000E+000 1.767849E+000 2.736355E-001
 1.284000E+000 1.802714E+000 2.731795E-001
 1.287000E+000 1.856144E+000 2.731462E-001
 1.290000E+000 1.719861E+000 2.738191E-001
 1.293000E+000 1.663616E+000 2.743200E-001
 1.296000E+000 1.765963E+000 2.691116E-001
 1.299000E+000 1.774788E+000 2.680567E-001
 1.302000E+000 1.817091E+000 2.680160E-001
 1.305000E+000 1.789987E+000 2.681448E-001
 1.308000E+000 1.679835E+000 2.687934E-001
 1.311000E+000 1.655665E+000 2.692767E-001
 1.314000E+000 1.757735E+000 2.633332E-001
 1.317000E+000 1.784567E+000 2.628398E-001
 1.320000E+000 1.840269E+000 2.629411E-001
 1.323000E+000 1.718822E+000 2.634817E-001
 1.326000E+000 1.654476E+000 2.640317E-001
 1.329000E+000 1.753848E+000 2.591736E-001
 1.332000E+000 1.757044E+000 2.580747E-001
 1.335000E+000 1.796950E+000 2.580477E-001
 1.338000E+000 1.793069E+000 2.582020E-001
 1.341000E+000 1.674749E+000 2.589127E-001
 1.344000E+000 1.642551E+000 2.594060E-001
 1.347000E+000 1.743955E+000 2.537706E-001
 1.350000E+000 1.766113E+000 2.532284E-001
 1.353000E+000 1.824149E+000 2.534250E-001
 1.356000E+000 1.717491E+000 2.538823E-001
 1.359000E+000 1.645804E+000 2.544706E-001
 1.362000E+000 1.637043E+000 2.550118E-001
 1.365000E+000 1.739565E+000 2.488074E-001
 1.368000E+000 1.777243E+000 2.487743E-001
 1.371000E+000 1.794881E+000 2.489647E-001
 1.374000E+000 1.670445E+000 2.497019E-001
 1.377000E+000 1.630272E+000 2.502091E-001
 1.380000E+000 1.730664E+000 2.448817E-001
 1.383000E+000 1.747730E+000 2.442744E-001
 1.386000E+000 1.795549E+000 2.445421E-001
 1.389000E+000 1.725766E+000 2.449315E-001
 1.392000E+000 1.639176E+000 2.455516E-001
 1.395000E+000 1.627447E+000 2.460874E-001
 1.398000E+000 1.722813E+000 2.401760E-001
 1.401000E+000 1.758392E+000 2.401130E-001
 1.404000E+000 1.797294E+000 2.403516E-001
 1.407000E+000 1.666170E+000 2.411087E-001
 1.410000E+000 1.618955E+000 2.416301E-001
 1.413000E+000 1.717542E+000 2.366102E-001
 1.416000E+000 1.730326E+000 2.359427E-001
 1.419000E+000 1.774910E+000 2.362388E-001
 1.422000E+000 1.728971E+000 2.365944E-001
 1.425000E+000 1.632579E+000 2.372420E-001
 1.428000E+000 1.618195E+000 2.377715E-001
 1.431000E+000 1.706564E+000 2.321441E-001
 1.434000E+000 1.740879E+000 2.320323E-001
 1.437000E+000 1.794088E+000 2.323603E-001
 1.440000E+000 1.662959E+000 2.330627E-001
 1.443000E+000 1.609062E+000 2.336017E-001
 1.446000E+000 1.705946E+000 2.288891E-001
 1.449000E+000 1.713595E+000 2.281552E-001
 1.452000E+000 1.755464E+000 2.284576E-001
 1.455000E+000 1.732330E+000 2.288102E-001
 1.458000E+000 1.624549E+000 2.294794E-001
 1.461000E+000 1.601071E+000 2.300049E-001
 1.464000E+000 1.698480E+000 2.246660E-001
 1.467000E+000 1.724478E+000 2.244921E-001
 1.470000E+000 1.780275E+000 2.249254E-001
 1.473000E+000 1.663167E+000 2.255136E-001
 1.476000E+000 1.600870E+000 2.260749E-001
 1.479000E+000 1.696068E+000 2.216886E-001
 1.482000E+000 1.698178E+000 2.208841E-001
 1.485000E+000 1.737691E+000 2.211722E-001
 1.488000E+000 1.736824E+000 2.215480E-001
 1.491000E+000 1.621701E+000 2.222445E-001
 1.494000E+000 1.589909E+000 2.227646E-001
 1.497000E+000 1.687141E+000 2.177053E-001
 1.500000E+000 1.708446E+000 2.174594E-001
 1.503000E+000 1.766463E+000 2.179631E-001
 1.506000E+000 1.663702E+000 2.184761E-001
 1.509000E+000 1.594216E+000 2.190596E-001
 1.512000E+000 1.586393E+000 2.196394E-001
 1.515000E+000 1.683391E+000 2.141121E-001
 1.518000E+000 1.720725E+000 2.143662E-001
 1.521000E+000 1.740766E+000 2.147849E-001
 1.524000E+000 1.619353E+000 2.154952E-001
 1.527000E+000 1.579917E+000 2.160109E-001
 1.530000E+000 1.676519E+000 2.112282E-001
 1.533000E+000 1.693006E+000 2.108931E-001
 1.536000E+000 1.740967E+000 2.114361E-001
 1.539000E+000 1.674016E+000 2.119047E-001
 1.542000E+000 1.589971E+000 2.125040E-001
 1.545000E+000 1.579311E+000 2.130619E-001
 1.548000E+000 1.669750E+000 2.077913E-001
 1.551000E+000 1.704955E+000 2.079941E-001
 1.554000E+000 1.745367E+000 2.084720E-001
 1.557000E+000 1.617410E+000 2.091909E-001
 1.560000E+000 1.571216E+000 2.097043E-001
 1.563000E+000 1.666558E+000 2.051966E-001
 1.566000E+000 1.678800E+000 2.047800E-001
 1.569000E+000 1.723607E+000 2.053319E-001
 1.572000E+000 1.679605E+000 2.057861E-001
 1.575000E+000 1.586124E+000 2.063983E-001
 1.578000E+000 1.572955E+000 2.069343E-001
 1.581000E+000 1.656801E+000 2.019105E-001
 1.584000E+000 1.690195E+000 2.020443E-001
 1.587000E+000 1.743238E+000 2.026143E-001
 1.590000E+000 1.617650E+000 2.032778E-001
 1.593000E+000 1.564452E+000 2.037939E-001
 1.596000E+000 1.658419E+000 1.995629E-001
 1.599000E+000 1.665610E+000 1.990597E-001
 1.602000E+000 1.707742E+000 1.995994E-001
 1.605000E+000 1.685713E+000 2.000690E-001
 1.608000E+000 1.581285E+000 2.006904E-001
 1.611000E+000 1.559008E+000 2.012082E-001
 1.614000E+000 1.652567E+000 1.964343E-001
 1.617000E+000 1.677767E+000 1.964877E-001
 1.620000E+000 1.732897E+000 1.971471E-001
 1.623000E+000 1.620792E+000 1.977185E-001
 1.626000E+000 1.560049E+000 1.982453E-001
 1.629000E+000 1.652038E+000 1.942982E-001
 1.632000E+000 1.653939E+000 1.937070E-001
 1.635000E+000 1.693694E+000 1.942164E-001
 1.638000E+000 1.692933E+000 1.947284E-001
 1.641000E+000 1.581691E+000 1.953670E-001
 1.644000E+000 1.551291E+000 1.958676E-001
 1.647000E+000 1.645023E+000 1.913320E-001
 1.650000E+000 1.665670E+000 1.912978E-001
 1.653000E+000 1.722902E+000 1.920150E-001
 1.656000E+000 1.624489E+000 1.925347E-001
 1.659000E+000 1.556778E+000 1.930723E-001
 1.662000E+000 1.549239E+000 1.936414E-001
 1.665000E+000 1.643126E+000 1.887215E-001
 1.668000E+000 1.680685E+000 1.891824E-001
 1.671000E+000 1.700140E+000 1.897557E-001
 1.674000E+000 1.582725E+000 1.904013E-001
 1.677000E+000 1.544837E+000 1.908873E-001
 1.680000E+000 1.638316E+000 1.865850E-001
 1.683000E+000 1.654230E+000 1.864482E-001
 1.686000E+000 1.701358E+000 1.871935E-001
 1.689000E+000 1.638189E+000 1.876929E-001
 1.692000E+000 1.556077E+000 1.882372E-001
 1.695000E+000 1.545749E+000 1.887757E-001
 1.698000E+000 1.633523E+000 1.840661E-001
 1.701000E+000 1.668973E+000 1.844614E-001
 1.704000E+000 1.707995E+000 1.851114E-001
 1.707000E+000 1.584252E+000 1.857614E-001
 1.710000E+000 1.539814E+000 1.862368E-001
 1.713000E+000 1.632437E+000 1.821657E-001
 1.716000E+000 1.644047E+000 1.819334E-001
 1.719000E+000 1.688014E+000 1.826766E-001
 1.722000E+000 1.647037E+000 1.831863E-001
 1.725000E+000 1.555999E+000 1.837371E-001
 1.728000E+000 1.543099E+000 1.842465E-001
 1.731000E+000 1.624602E+000 1.797338E-001
 1.734000E+000 1.658241E+000 1.800482E-001
 1.737000E+000 1.708800E+000 1.807982E-001
 1.740000E+000 1.588139E+000 1.813986E-001
 1.743000E+000 1.536849E+000 1.818702E-001
 1.746000E+000 1.628250E+000 1.780293E-001
 1.749000E+000 1.635071E+000 1.776984E-001
 1.752000E+000 1.676386E+000 1.784196E-001
 1.755000E+000 1.656511E+000 1.789693E-001
 1.758000E+000 1.554846E+000 1.795245E-001
 1.761000E+000 1.532712E+000 1.800099E-001
 1.764000E+000 1.624522E+000 1.756971E-001
 1.767000E+000 1.649998E+000 1.759197E-001
 1.770000E+000 1.702498E+000 1.767534E-001
 1.773000E+000 1.594574E+000 1.772868E-001
 1.776000E+000 1.536033E+000 1.777630E-001
 1.779000E+000 1.625787E+000 1.741604E-001
 1.782000E+000 1.627428E+000 1.737293E-001
 1.785000E+000 1.666319E+000 1.744109E-001
 1.788000E+000 1.666832E+000 1.750246E-001
 1.791000E+000 1.558799E+000 1.755918E-001
 1.794000E+000 1.528715E+000 1.760560E-001
 1.797000E+000 1.620882E+000 1.719312E-001
 1.800000E+000 1.641855E+000 1.720558E-001
 1.803000E+000 1.696380E+000 1.729408E-001
 1.806000E+000 1.601556E+000 1.734472E-001
 1.809000E+000 1.536295E+000 1.739296E-001
 1.812000E+000 1.528671E+000 1.744750E-001
 1.815000E+000 1.620411E+000 1.700262E-001
 1.818000E+000 1.657185E+000 1.706501E-001
 1.821000E+000 1.677284E+000 1.713457E-001
 1.824000E+000 1.563151E+000 1.719172E-001
 1.827000E+000 1.525767E+000 1.723625E-001
 1.830000E+000 1.617839E+000 1.684225E-001
 1.833000E+000 1.634174E+000 1.684351E-001
 1.836000E+000 1.678510E+000 1.693415E-001
 1.839000E+000 1.618421E+000 1.698525E-001
 1.842000E+000 1.538955E+000 1.703364E-001
 1.845000E+000 1.528567E+000 1.708477E-001
 1.848000E+000 1.614422E+000 1.665561E-001
 1.851000E+000 1.649127E+000 1.671062E-001
 1.854000E+000 1.688310E+000 1.678982E-001
 1.857000E+000 1.567792E+000 1.684720E-001
 1.860000E+000 1.524038E+000 1.689029E-001
 1.863000E+000 1.615401E+000 1.651467E-001
 1.866000E+000 1.627550E+000 1.650550E-001
 1.869000E+000 1.668844E+000 1.659533E-001
 1.872000E+000 1.630185E+000 1.664973E-001
 1.875000E+000 1.541849E+000 1.669842E-001
 1.878000E+000 1.529038E+000 1.674640E-001
 1.881000E+000 1.608901E+000 1.633208E-001
 1.884000E+000 1.641836E+000 1.637813E-001
 1.887000E+000 1.691473E+000 1.646796E-001
 1.890000E+000 1.574656E+000 1.652111E-001
 1.893000E+000 1.524317E+000 1.656357E-001
 1.896000E+000 1.614861E+000 1.620651E-001
 1.899000E+000 1.621749E+000 1.618659E-001
 1.902000E+000 1.660480E+000 1.627344E-001
 1.905000E+000 1.642315E+000 1.633403E-001
 1.908000E+000 1.543721E+000 1.638301E-001
 1.911000E+000 1.521535E+000 1.642834E-001
 1.914000E+000 1.611932E+000 1.602939E-001
 1.917000E+000 1.636666E+000 1.606540E-001
 1.920000E+000 1.688292E+000 1.616298E-001
 1.923000E+000 1.583741E+000 1.621196E-001
 1.926000E+000 1.526290E+000 1.625461E-001
 1.929000E+000 1.615185E+000 1.591718E-001
 1.932000E+000 1.617006E+000 1.588635E-001
 1.935000E+000 1.653500E+000 1.596839E-001
 1.938000E+000 1.655041E+000 1.603751E-001
 1.941000E+000 1.550303E+000 1.608754E-001
 1.944000E+000 1.520191E+000 1.613058E-001
 1.947000E+000 1.611062E+000 1.574603E-001
 1.950000E+000 1.631386E+000 1.577146E-001
 1.953000E+000 1.685029E+000 1.587352E-001
 1.956000E+000 1.593110E+000 1.592225E-001
 1.959000E+000 1.529012E+000 1.596530E-001
 1.962000E+000 1.522174E+000 1.601830E-001
 1.965000E+000 1.612672E+000 1.560526E-001
 1.968000E+000 1.647122E+000 1.568069E-001
 1.971000E+000 1.667788E+000 1.575992E-001
 1.974000E+000 1.556903E+000 1.581039E-001
 1.977000E+000 1.519675E+000 1.585140E-001
 1.980000E+000 1.610533E+000 1.548107E-001
 1.983000E+000 1.626300E+000 1.549448E-001
 1.986000E+000 1.669661E+000 1.559806E-001
 1.989000E+000 1.612107E+000 1.564961E-001
 1.992000E+000 1.533909E+000 1.569268E-001
 1.995000E+000 1.524305E+000 1.574216E-001
 1.998000E+000 1.609052E+000 1.534038E-001
 2.001000E+000 1.641541E+000 1.540763E-001
 2.004000E+000 1.680963E+000 1.549825E-001
 2.007000E+000 1.563537E+000 1.554899E-001
 2.010000E+000 1.520042E+000 1.558845E-001
 2.013000E+000 1.610245E+000 1.523258E-001
 2.016000E+000 1.621912E+000 1.523482E-001
 2.019000E+000 1.662350E+000 1.533695E-001
 2.022000E+000 1.625660E+000 1.539399E-001
 2.025000E+000 1.538733E+000 1.543724E-001
 2.028000E+000 1.526728E+000 1.548346E-001
 2.031000E+000 1.605657E+000 1.509245E-001